 argument  1 = initialInput.nw
                                         
                                         


              Northwest Computational Chemistry Package (NWChem) 6.6
              ------------------------------------------------------


                    Environmental Molecular Sciences Laboratory
                       Pacific Northwest National Laboratory
                                Richland, WA 99352

                              Copyright (c) 1994-2015
                       Pacific Northwest National Laboratory
                            Battelle Memorial Institute

             NWChem is an open-source computational chemistry package
                        distributed under the terms of the
                      Educational Community License (ECL) 2.0
             A copy of the license is included with this distribution
                              in the LICENSE.TXT file

                                  ACKNOWLEDGMENT
                                  --------------

            This software and its documentation were developed at the
            EMSL at Pacific Northwest National Laboratory, a multiprogram
            national laboratory, operated for the U.S. Department of Energy
            by Battelle under Contract Number DE-AC05-76RL01830. Support
            for this work was provided by the Department of Energy Office
            of Biological and Environmental Research, Office of Basic
            Energy Sciences, and the Office of Advanced Scientific Computing.


           Job information
           ---------------

    hostname        = or-condo-c128.ornl.gov
    program         = nwchem
    date            = Thu Feb 13 09:42:07 2020

    compiled        = Mon_Aug_15_22:53:58_2016
    source          = /software/dev_tools/swtree/cs400/nwchem/6.6/centos7.2_gnu5.3.0/nwchem-6.6
    nwchem branch   = 6.6
    nwchem revision = 27746
    ga revision     = 10594
    input           = initialInput.nw
    prefix          = initialInput.
    data base       = ./initialInput.db
    status          = startup
    nproc           =       32
    time left       =     -1s



           Memory information
           ------------------

    heap     =   13107196 doubles =    100.0 Mbytes
    stack    =   13107201 doubles =    100.0 Mbytes
    global   =   26214400 doubles =    200.0 Mbytes (distinct from heap & stack)
    total    =   52428797 doubles =    400.0 Mbytes
    verify   = yes
    hardfail = no 


           Directory information
           ---------------------

  0 permanent = .
  0 scratch   = .




                                NWChem Input Module
                                -------------------


                      gradient with PC perturbation template
                      --------------------------------------

 Scaling coordinates for geometry "geometry" by  1.889725989
 (inverse scale =  0.529177249)



                             Geometry "geometry" -> ""
                             -------------------------

 Output coordinates in angstroms (scale by  1.889725989 to convert to a.u.)

  No.       Tag          Charge          X              Y              Z
 ---- ---------------- ---------- -------------- -------------- --------------
    1 O                    8.0000     0.00000000     0.00000000     0.20187565
    2 H                    1.0000    -1.48374995     0.00000000    -0.80751304
    3 H                    1.0000     1.48374995     0.00000000    -0.80751304

      Atomic Mass 
      ----------- 

      O                 15.994910
      H                  1.007825


 Effective nuclear repulsion energy (a.u.)       4.8964295116

            Nuclear Dipole moment (a.u.) 
            ----------------------------
        X                 Y               Z
 ---------------- ---------------- ----------------
     0.0000000000     0.0000000000    -0.0000394575


            XYZ format geometry
            -------------------
     3
 geometry
 O                     0.00000000     0.00000000     0.20187565
 H                    -1.48374995     0.00000000    -0.80751304
 H                     1.48374995     0.00000000    -0.80751304

  library name resolved from: environment
  library file name is: </software/dev_tools/swtree/cs400_centos7.2_pe2016-08/nwchem/6.6/centos7.2_gnu5.3.0/data/libraries/>
  


 Summary of "ao basis" -> "" (cartesian)
 ------------------------------------------------------------------------------
       Tag                 Description            Shells   Functions and Types
 ---------------- ------------------------------  ------  ---------------------
 *                           6-31g                    on all atoms 


                      Basis "ao basis" -> "ao basis" (cartesian)
                      -----
  O (Oxygen)
  ----------
            Exponent  Coefficients 
       -------------- ---------------------------------------------------------
  1 S  5.48467170E+03  0.001831
  1 S  8.25234950E+02  0.013950
  1 S  1.88046960E+02  0.068445
  1 S  5.29645000E+01  0.232714
  1 S  1.68975700E+01  0.470193
  1 S  5.79963530E+00  0.358521

  2 S  1.55396160E+01 -0.110778
  2 S  3.59993360E+00 -0.148026
  2 S  1.01376180E+00  1.130767

  3 P  1.55396160E+01  0.070874
  3 P  3.59993360E+00  0.339753
  3 P  1.01376180E+00  0.727159

  4 S  2.70005800E-01  1.000000

  5 P  2.70005800E-01  1.000000

  H (Hydrogen)
  ------------
            Exponent  Coefficients 
       -------------- ---------------------------------------------------------
  1 S  1.87311370E+01  0.033495
  1 S  2.82539370E+00  0.234727
  1 S  6.40121700E-01  0.813757

  2 S  1.61277800E-01  1.000000



 Summary of "ao basis" -> "ao basis" (cartesian)
 ------------------------------------------------------------------------------
       Tag                 Description            Shells   Functions and Types
 ---------------- ------------------------------  ------  ---------------------
 O                           6-31g                   5        9   3s2p
 H                           6-31g                   2        2   2s


                                 NWChem SCF Module
                                 -----------------


                      gradient with PC perturbation template



  ao basis        = "ao basis"
  functions       =    13
  atoms           =     3
  closed shells   =     5
  open shells     =     0
  charge          =   0.00
  wavefunction    = RHF 
  input vectors   = atomic
  output vectors  = ./temp.movecs
  use symmetry    = F
  symmetry adapt  = F


 Summary of "ao basis" -> "ao basis" (cartesian)
 ------------------------------------------------------------------------------
       Tag                 Description            Shells   Functions and Types
 ---------------- ------------------------------  ------  ---------------------
 O                           6-31g                   5        9   3s2p
 H                           6-31g                   2        2   2s



 Forming initial guess at       0.4s


      Superposition of Atomic Density Guess
      -------------------------------------

 Sum of atomic energies:         -75.75081731

      Non-variational initial energy
      ------------------------------

 Total energy =     -75.039452
 1-e energy   =    -113.965594
 2-e energy   =      34.029713
 HOMO         =      -0.374677
 LUMO         =      -0.131022


 Starting SCF solution at       0.4s



 ----------------------------------------------
         Quadratically convergent ROHF

 Convergence threshold     :          1.000E-04
 Maximum no. of iterations :           30
 Final Fock-matrix accuracy:          1.000E-07
 ----------------------------------------------


 #quartets = 1.034D+03 #integrals = 2.422D+03 #direct =  0.0% #cached =100.0%


 Integral file          = ./initialInput.aoints.00
 Record size in doubles =    65536    No. of integs per rec  =    43688
 Max. records in memory =        2    Max. records in file   = 89866585
 No. of bits per label  =        8    No. of bits per value  =       64


File balance: exchanges=     0  moved=     0  time=   0.0


              iter       energy          gnorm     gmax       time
             ----- ------------------- --------- --------- --------
                 1      -75.4407429430  1.45D+00  7.43D-01      0.3
                 2      -75.5818428841  4.56D-01  2.95D-01      0.3
                 3      -75.6108959089  5.57D-01  3.74D-01      0.3
                 4      -75.6320758945  9.18D-02  6.01D-02      0.3
                 5      -75.6327727084  2.72D-03  1.86D-03      0.3
                 6      -75.6327813416  2.47D-05  1.55D-05      0.3


       Final RHF  results 
       ------------------ 

         Total SCF energy =    -75.632781341566
      One-electron energy =   -114.559080055118
      Two-electron energy =     34.029869201950
 Nuclear repulsion energy =      4.896429511603

        Time for solution =      0.2s


             Final eigenvalues
             -----------------

              1      
    1  -20.6639
    2   -1.1983
    3   -0.5045
    4   -0.4479
    5   -0.4351
    6   -0.0130
    7    0.0450
    8    0.9424
    9    0.9979
   10    1.1601
   11    1.2263
   12    1.3078
   13    1.3881

                       ROHF Final Molecular Orbital Analysis
                       -------------------------------------

 Vector    2  Occ=2.000000D+00  E=-1.198305D+00
              MO Center=  3.3D-16, -5.1D-17,  1.8D-01, r^2= 4.9D-01
   Bfn.  Coefficient  Atom+Function         Bfn.  Coefficient  Atom+Function  
  ----- ------------  ---------------      ----- ------------  ---------------
     6      0.540621  1 O  s                  2      0.533986  1 O  s          
     1     -0.229788  1 O  s          

 Vector    3  Occ=2.000000D+00  E=-5.045146D-01
              MO Center=  3.7D-31,  7.2D-17,  2.0D-01, r^2= 5.6D-01
   Bfn.  Coefficient  Atom+Function         Bfn.  Coefficient  Atom+Function  
  ----- ------------  ---------------      ----- ------------  ---------------
     4      0.676064  1 O  py                 8      0.472050  1 O  py         

 Vector    4  Occ=2.000000D+00  E=-4.478881D-01
              MO Center=  2.5D-14, -2.9D-31, -2.2D-01, r^2= 1.9D+00
   Bfn.  Coefficient  Atom+Function         Bfn.  Coefficient  Atom+Function  
  ----- ------------  ---------------      ----- ------------  ---------------
     3      0.429092  1 O  px                 7      0.345360  1 O  px         
    11     -0.290257  2 H  s                 13      0.290257  3 H  s          
    10     -0.166865  2 H  s                 12      0.166865  3 H  s          

 Vector    5  Occ=2.000000D+00  E=-4.350687D-01
              MO Center= -3.2D-14,  3.4D-17, -1.3D-01, r^2= 1.6D+00
   Bfn.  Coefficient  Atom+Function         Bfn.  Coefficient  Atom+Function  
  ----- ------------  ---------------      ----- ------------  ---------------
     5      0.488329  1 O  pz                 9      0.389527  1 O  pz         
    11     -0.261334  2 H  s                 13     -0.261334  3 H  s          

 Vector    6  Occ=0.000000D+00  E=-1.303945D-02
              MO Center=  4.9D-14, -4.4D-17, -4.8D-01, r^2= 2.8D+00
   Bfn.  Coefficient  Atom+Function         Bfn.  Coefficient  Atom+Function  
  ----- ------------  ---------------      ----- ------------  ---------------
    11      0.510873  2 H  s                 13      0.510873  3 H  s          
     9      0.401948  1 O  pz                 5      0.390010  1 O  pz         
     6     -0.226493  1 O  s                 10      0.180304  2 H  s          
    12      0.180304  3 H  s          

 Vector    7  Occ=0.000000D+00  E= 4.501027D-02
              MO Center= -4.2D-14, -6.5D-31, -4.3D-01, r^2= 2.7D+00
   Bfn.  Coefficient  Atom+Function         Bfn.  Coefficient  Atom+Function  
  ----- ------------  ---------------      ----- ------------  ---------------
    11      0.523982  2 H  s                 13     -0.523982  3 H  s          
     7      0.498122  1 O  px                 3      0.444844  1 O  px         
    10      0.175459  2 H  s                 12     -0.175459  3 H  s          

 Vector    8  Occ=0.000000D+00  E= 9.423840D-01
              MO Center=  2.1D-14,  5.8D-16, -7.9D-01, r^2= 3.6D+00
   Bfn.  Coefficient  Atom+Function         Bfn.  Coefficient  Atom+Function  
  ----- ------------  ---------------      ----- ------------  ---------------
    10      0.890757  2 H  s                 12      0.890757  3 H  s          
    11     -0.830971  2 H  s                 13     -0.830971  3 H  s          
     9     -0.308468  1 O  pz                 6      0.230199  1 O  s          
     5      0.197286  1 O  pz         

 Vector    9  Occ=0.000000D+00  E= 9.978542D-01
              MO Center= -2.1D-14, -2.3D-30, -8.8D-01, r^2= 3.8D+00
   Bfn.  Coefficient  Atom+Function         Bfn.  Coefficient  Atom+Function  
  ----- ------------  ---------------      ----- ------------  ---------------
    11     -0.936981  2 H  s                 13      0.936981  3 H  s          
    10      0.905209  2 H  s                 12     -0.905209  3 H  s          
     7     -0.424398  1 O  px                 3      0.212754  1 O  px         

 Vector   10  Occ=0.000000D+00  E= 1.160068D+00
              MO Center=  1.5D-29, -1.2D-15,  2.0D-01, r^2= 1.2D+00
   Bfn.  Coefficient  Atom+Function         Bfn.  Coefficient  Atom+Function  
  ----- ------------  ---------------      ----- ------------  ---------------
     8      1.055090  1 O  py                 4     -0.937541  1 O  py         

 Vector   11  Occ=0.000000D+00  E= 1.226316D+00
              MO Center= -2.3D-15,  5.2D-16,  4.3D-01, r^2= 1.2D+00
   Bfn.  Coefficient  Atom+Function         Bfn.  Coefficient  Atom+Function  
  ----- ------------  ---------------      ----- ------------  ---------------
     9     -0.969993  1 O  pz                 5      0.908862  1 O  pz         
     6     -0.445567  1 O  s                  2      0.423039  1 O  s          
    10     -0.219190  2 H  s                 12     -0.219190  3 H  s          

 Vector   12  Occ=0.000000D+00  E= 1.307803D+00
              MO Center=  6.1D-15,  1.6D-29,  2.1D-01, r^2= 1.2D+00
   Bfn.  Coefficient  Atom+Function         Bfn.  Coefficient  Atom+Function  
  ----- ------------  ---------------      ----- ------------  ---------------
     7      1.110403  1 O  px                 3     -0.975789  1 O  px         
    10      0.225084  2 H  s                 12     -0.225084  3 H  s          

 Vector   13  Occ=0.000000D+00  E= 1.388105D+00
              MO Center= -4.0D-15, -8.7D-18, -1.4D-01, r^2= 1.2D+00
   Bfn.  Coefficient  Atom+Function         Bfn.  Coefficient  Atom+Function  
  ----- ------------  ---------------      ----- ------------  ---------------
     6     -1.592962  1 O  s                  2      1.469902  1 O  s          
     9      0.419143  1 O  pz                 5     -0.315204  1 O  pz         
    11      0.313459  2 H  s                 13      0.313459  3 H  s          


 center of mass
 --------------
 x =   0.00000000 y =   0.00000000 z =   0.16801557

 moments of inertia (a.u.)
 ------------------
           6.513047524658           0.000000000000           0.000000000000
           0.000000000000          22.359579419104           0.000000000000
           0.000000000000           0.000000000000          15.846531894446

  Mulliken analysis of the total density
  --------------------------------------

    Atom       Charge   Shell Charges
 -----------   ------   -------------------------------------------------------
    1 O    8     8.41   2.00  0.99  2.49  1.00  1.94
    2 H    1     0.80   0.25  0.54
    3 H    1     0.80   0.25  0.54

       Multipole analysis of the density wrt the origin
       ------------------------------------------------

     L   x y z        total         open         nuclear
     -   - - -        -----         ----         -------
     0   0 0 0     -0.000000      0.000000     10.000000

     1   1 0 0      0.000000      0.000000      0.000000
     1   0 1 0     -0.000000      0.000000      0.000000
     1   0 0 1     -0.848865      0.000000     -0.000039

     2   2 0 0     -1.460093      0.000000     15.723496
     2   1 1 0     -0.000000      0.000000      0.000000
     2   1 0 1     -0.000000      0.000000      0.000000
     2   0 2 0     -6.260836      0.000000      0.000000
     2   0 1 1      0.000000      0.000000      0.000000
     2   0 0 2     -4.617509      0.000000      5.821495


 Parallel integral file used      32 records with       0 large values


 Task  times  cpu:        0.2s     wall:        2.8s


                                NWChem Input Module
                                -------------------


                   Bq Structure Information (Angstroms)
                   ------------------------------------
 Name: test                                                                    
 Number of centers:                     1
    1  Bq         0.00000000     0.00000000    10.00000000   charge       -1.00000000
 Total Bq charge:   -1.0000000000000000     


                                 NWChem SCF Module
                                 -----------------


                      gradient with PC perturbation template



  ao basis        = "ao basis"
  functions       =    13
  atoms           =     3
  closed shells   =     5
  open shells     =     0
  charge          =   0.00
  wavefunction    = RHF 
  input vectors   = ./temp.movecs
  output vectors  = ./temp.movecs
  use symmetry    = F
  symmetry adapt  = F


 Summary of "ao basis" -> "ao basis" (cartesian)
 ------------------------------------------------------------------------------
       Tag                 Description            Shells   Functions and Types
 ---------------- ------------------------------  ------  ---------------------
 O                           6-31g                   5        9   3s2p
 H                           6-31g                   2        2   2s



 Forming initial guess at       3.1s


 Loading old vectors from job with title :

gradient with PC perturbation template

 Nuclear repulsion energy =   4.8964295116033867     
 Bq nuclear interaction energy = -0.52908174945277286     

 Starting SCF solution at       3.1s



 ----------------------------------------------
         Quadratically convergent ROHF

 Convergence threshold     :          1.000E-04
 Maximum no. of iterations :           30
 Final Fock-matrix accuracy:          1.000E-07
 ----------------------------------------------


 #quartets = 1.034D+03 #integrals = 2.422D+03 #direct =  0.0% #cached =100.0%


 Integral file          = ./initialInput.aoints.00
 Record size in doubles =    65536    No. of integs per rec  =    43688
 Max. records in memory =        2    Max. records in file   = 89866566
 No. of bits per label  =        8    No. of bits per value  =       64


File balance: exchanges=     0  moved=     0  time=   0.0

 Nuclear repulsion energy =   4.8964295116033867     
 Bq nuclear interaction energy = -0.52908174945277286     


       Final RHF  results 
       ------------------ 

         Total SCF energy =    -75.630353564670
      One-electron energy =   -114.027570528774
      Two-electron energy =     34.029869201953
 Nuclear repulsion energy =      4.367347762151

        Time for solution =      0.0s


             Final eigenvalues
             -----------------

              1      
    1  -20.6639
    2   -1.1983
    3   -0.5045
    4   -0.4479
    5   -0.4351
    6   -0.0130
    7    0.0450
    8    0.9424
    9    0.9979
   10    1.1601
   11    1.2263
   12    1.3078
   13    1.3881

                       ROHF Final Molecular Orbital Analysis
                       -------------------------------------

 Vector    2  Occ=2.000000D+00  E=-1.198305D+00
              MO Center=  3.4D-16, -5.1D-17,  1.8D-01, r^2= 4.9D-01
   Bfn.  Coefficient  Atom+Function         Bfn.  Coefficient  Atom+Function  
  ----- ------------  ---------------      ----- ------------  ---------------
     6      0.540621  1 O  s                  2      0.533986  1 O  s          
     1     -0.229788  1 O  s          

 Vector    3  Occ=2.000000D+00  E=-5.045146D-01
              MO Center=  3.7D-31,  6.6D-17,  2.0D-01, r^2= 5.6D-01
   Bfn.  Coefficient  Atom+Function         Bfn.  Coefficient  Atom+Function  
  ----- ------------  ---------------      ----- ------------  ---------------
     4      0.676064  1 O  py                 8      0.472050  1 O  py         

 Vector    4  Occ=2.000000D+00  E=-4.478881D-01
              MO Center=  2.5D-14, -2.6D-31, -2.2D-01, r^2= 1.9D+00
   Bfn.  Coefficient  Atom+Function         Bfn.  Coefficient  Atom+Function  
  ----- ------------  ---------------      ----- ------------  ---------------
     3      0.429092  1 O  px                 7      0.345360  1 O  px         
    11     -0.290257  2 H  s                 13      0.290257  3 H  s          
    10     -0.166865  2 H  s                 12      0.166865  3 H  s          

 Vector    5  Occ=2.000000D+00  E=-4.350687D-01
              MO Center= -3.2D-14,  3.4D-17, -1.3D-01, r^2= 1.6D+00
   Bfn.  Coefficient  Atom+Function         Bfn.  Coefficient  Atom+Function  
  ----- ------------  ---------------      ----- ------------  ---------------
     5      0.488329  1 O  pz                 9      0.389527  1 O  pz         
    11     -0.261334  2 H  s                 13     -0.261334  3 H  s          

 Vector    6  Occ=0.000000D+00  E=-1.303945D-02
              MO Center=  4.9D-14, -4.4D-17, -4.8D-01, r^2= 2.8D+00
   Bfn.  Coefficient  Atom+Function         Bfn.  Coefficient  Atom+Function  
  ----- ------------  ---------------      ----- ------------  ---------------
    11      0.510873  2 H  s                 13      0.510873  3 H  s          
     9      0.401948  1 O  pz                 5      0.390010  1 O  pz         
     6     -0.226493  1 O  s                 10      0.180304  2 H  s          
    12      0.180304  3 H  s          

 Vector    7  Occ=0.000000D+00  E= 4.501027D-02
              MO Center= -4.2D-14, -6.5D-31, -4.3D-01, r^2= 2.7D+00
   Bfn.  Coefficient  Atom+Function         Bfn.  Coefficient  Atom+Function  
  ----- ------------  ---------------      ----- ------------  ---------------
    11      0.523982  2 H  s                 13     -0.523982  3 H  s          
     7      0.498122  1 O  px                 3      0.444844  1 O  px         
    10      0.175459  2 H  s                 12     -0.175459  3 H  s          

 Vector    8  Occ=0.000000D+00  E= 9.423840D-01
              MO Center=  2.1D-14,  5.8D-16, -7.9D-01, r^2= 3.6D+00
   Bfn.  Coefficient  Atom+Function         Bfn.  Coefficient  Atom+Function  
  ----- ------------  ---------------      ----- ------------  ---------------
    10      0.890757  2 H  s                 12      0.890757  3 H  s          
    11     -0.830971  2 H  s                 13     -0.830971  3 H  s          
     9     -0.308468  1 O  pz                 6      0.230199  1 O  s          
     5      0.197286  1 O  pz         

 Vector    9  Occ=0.000000D+00  E= 9.978542D-01
              MO Center= -2.1D-14, -2.5D-30, -8.8D-01, r^2= 3.8D+00
   Bfn.  Coefficient  Atom+Function         Bfn.  Coefficient  Atom+Function  
  ----- ------------  ---------------      ----- ------------  ---------------
    11     -0.936981  2 H  s                 13      0.936981  3 H  s          
    10      0.905209  2 H  s                 12     -0.905209  3 H  s          
     7     -0.424398  1 O  px                 3      0.212754  1 O  px         

 Vector   10  Occ=0.000000D+00  E= 1.160068D+00
              MO Center=  1.1D-29, -1.0D-15,  2.0D-01, r^2= 1.2D+00
   Bfn.  Coefficient  Atom+Function         Bfn.  Coefficient  Atom+Function  
  ----- ------------  ---------------      ----- ------------  ---------------
     8      1.055090  1 O  py                 4     -0.937541  1 O  py         

 Vector   11  Occ=0.000000D+00  E= 1.226316D+00
              MO Center= -2.4D-15,  4.7D-16,  4.3D-01, r^2= 1.2D+00
   Bfn.  Coefficient  Atom+Function         Bfn.  Coefficient  Atom+Function  
  ----- ------------  ---------------      ----- ------------  ---------------
     9     -0.969993  1 O  pz                 5      0.908862  1 O  pz         
     6     -0.445567  1 O  s                  2      0.423039  1 O  s          
    10     -0.219190  2 H  s                 12     -0.219190  3 H  s          

 Vector   12  Occ=0.000000D+00  E= 1.307803D+00
              MO Center=  6.0D-15,  1.3D-29,  2.1D-01, r^2= 1.2D+00
   Bfn.  Coefficient  Atom+Function         Bfn.  Coefficient  Atom+Function  
  ----- ------------  ---------------      ----- ------------  ---------------
     7      1.110403  1 O  px                 3     -0.975789  1 O  px         
    10      0.225084  2 H  s                 12     -0.225084  3 H  s          

 Vector   13  Occ=0.000000D+00  E= 1.388105D+00
              MO Center= -3.8D-15, -7.7D-18, -1.4D-01, r^2= 1.2D+00
   Bfn.  Coefficient  Atom+Function         Bfn.  Coefficient  Atom+Function  
  ----- ------------  ---------------      ----- ------------  ---------------
     6     -1.592962  1 O  s                  2      1.469902  1 O  s          
     9      0.419143  1 O  pz                 5     -0.315204  1 O  pz         
    11      0.313459  2 H  s                 13      0.313459  3 H  s          


 center of mass
 --------------
 x =   0.00000000 y =   0.00000000 z =   0.16801557

 moments of inertia (a.u.)
 ------------------
           6.513047524658           0.000000000000           0.000000000000
           0.000000000000          22.359579419104           0.000000000000
           0.000000000000           0.000000000000          15.846531894446

  Mulliken analysis of the total density
  --------------------------------------

    Atom       Charge   Shell Charges
 -----------   ------   -------------------------------------------------------
    1 O    8     8.41   2.00  0.99  2.49  1.00  1.94
    2 H    1     0.80   0.25  0.54
    3 H    1     0.80   0.25  0.54

       Multipole analysis of the density wrt the origin
       ------------------------------------------------

     L   x y z        total         open         nuclear
     -   - - -        -----         ----         -------
     0   0 0 0     -0.000000      0.000000     10.000000

     1   1 0 0      0.000000      0.000000      0.000000
     1   0 1 0     -0.000000      0.000000      0.000000
     1   0 0 1     -0.848865      0.000000     -0.000039

     2   2 0 0     -1.460093      0.000000     15.723496
     2   1 1 0     -0.000000      0.000000      0.000000
     2   1 0 1     -0.000000      0.000000      0.000000
     2   0 2 0     -6.260836      0.000000      0.000000
     2   0 1 1      0.000000      0.000000      0.000000
     2   0 0 2     -4.617509      0.000000      5.821495

 Nuclear repulsion energy =   4.8964295116033867     
 Bq nuclear interaction energy = -0.52908174945277286     

 Parallel integral file used      32 records with       0 large values


 Task  times  cpu:        0.1s     wall:        1.1s


                                NWChem Input Module
                                -------------------


 Summary of allocated global arrays
-----------------------------------
  No active global arrays



                         GA Statistics for process    0
                         ------------------------------

       create   destroy   get      put      acc     scatter   gather  read&inc
calls:  331      331     1075      590      913        0        0       10     
number of processes/call 2.16e+00 1.88e+00 1.73e+00 0.00e+00 0.00e+00
bytes total:             5.40e+05 3.18e+05 8.45e+04 0.00e+00 0.00e+00 8.00e+01
bytes remote:            4.16e+04 1.64e+04 1.88e+04 0.00e+00 0.00e+00 0.00e+00
Max memory consumed for GA by this process: 12416 bytes

MA_summarize_allocated_blocks: starting scan ...
MA_summarize_allocated_blocks: scan completed: 0 heap blocks, 0 stack blocks
MA usage statistics:

	allocation statistics:
					      heap	     stack
					      ----	     -----
	current number of blocks	         0	         0
	maximum number of blocks	        19	        14
	current total bytes		         0	         0
	maximum total bytes		   1057600	  22509416
	maximum total K-bytes		      1058	     22510
	maximum total M-bytes		         2	        23


                                     CITATION
                                     --------
                Please cite the following reference when publishing
                           results obtained with NWChem:

                 M. Valiev, E.J. Bylaska, N. Govind, K. Kowalski,
              T.P. Straatsma, H.J.J. van Dam, D. Wang, J. Nieplocha,
                        E. Apra, T.L. Windus, W.A. de Jong
                 "NWChem: a comprehensive and scalable open-source
                  solution for large scale molecular simulations"
                      Comput. Phys. Commun. 181, 1477 (2010)
                           doi:10.1016/j.cpc.2010.04.018

                                      AUTHORS
                                      -------
          E. Apra, E. J. Bylaska, W. A. de Jong, N. Govind, K. Kowalski,
       T. P. Straatsma, M. Valiev, H. J. J. van Dam, D. Wang, T. L. Windus,
        J. Hammond, J. Autschbach, K. Bhaskaran-Nair, J. Brabec, K. Lopata,
       S. A. Fischer, S. Krishnamoorthy, W. Ma, M. Klemm, O. Villa, Y. Chen,
    V. Anisimov, F. Aquino, S. Hirata, M. T. Hackler, T. Risthaus, M. Malagoli,
       A. Marenich, A. Otero-de-la-Roza, J. Mullin, P. Nichols, R. Peverati,
     J. Pittner, Y. Zhao, P.-D. Fan, A. Fonari, M. Williamson, R. J. Harrison,
       J. R. Rehr, M. Dupuis, D. Silverstein, D. M. A. Smith, J. Nieplocha,
        V. Tipparaju, M. Krishnan, B. E. Van Kuiken, A. Vazquez-Mayagoitia,
        L. Jensen, M. Swart, Q. Wu, T. Van Voorhis, A. A. Auer, M. Nooijen,
      L. D. Crosby, E. Brown, G. Cisneros, G. I. Fann, H. Fruchtl, J. Garza,
        K. Hirao, R. A. Kendall, J. A. Nichols, K. Tsemekhman, K. Wolinski,
     J. Anchell, D. E. Bernholdt, P. Borowski, T. Clark, D. Clerc, H. Dachsel,
   M. J. O. Deegan, K. Dyall, D. Elwood, E. Glendening, M. Gutowski, A. C. Hess,
         J. Jaffe, B. G. Johnson, J. Ju, R. Kobayashi, R. Kutteh, Z. Lin,
   R. Littlefield, X. Long, B. Meng, T. Nakajima, S. Niu, L. Pollack, M. Rosing,
   K. Glaesemann, G. Sandrone, M. Stave, H. Taylor, G. Thomas, J. H. van Lenthe,
                               A. T. Wong, Z. Zhang.

 Total times  cpu:        0.4s     wall:        4.4s
